<?xml version="1.0"?>
<VTKFile type="UnstructuredGrid"  version="0.1"  >
<UnstructuredGrid>
<Piece  NumberOfPoints="35" NumberOfCells="48">
<Points>
<DataArray  type="Float32"  NumberOfComponents="3"  format="ascii">0 0 0  0.166667 0 0  0.333333 0 0  0.5 0 0  0.666667 0 0  0.833333 0 0  1 0 0  0 0.25 0  0.166667 0.25 0  0.333333 0.25 0  0.5 0.25 0  0.666667 0.25 0  0.833333 0.25 0  1 0.25 0  0 0.5 0  0.166667 0.5 0  0.333333 0.5 0  0.5 0.5 0  0.666667 0.5 0  0.833333 0.5 0  1 0.5 0  0 0.75 0  0.166667 0.75 0  0.333333 0.75 0  0.5 0.75 0  0.666667 0.75 0  0.833333 0.75 0  1 0.75 0  0 1 0  0.166667 1 0  0.333333 1 0  0.5 1 0  0.666667 1 0  0.833333 1 0  1 1 0  </DataArray>
</Points>
<Cells>
<DataArray  type="UInt32"  Name="connectivity"  format="ascii">0 1 8  0 7 8  1 2 9  1 8 9  2 3 10  2 9 10  3 4 11  3 10 11  4 5 12  4 11 12  5 6 13  5 12 13  7 8 15  7 14 15  8 9 16  8 15 16  9 10 17  9 16 17  10 11 18  10 17 18  11 12 19  11 18 19  12 13 20  12 19 20  14 15 22  14 21 22  15 16 23  15 22 23  16 17 24  16 23 24  17 18 25  17 24 25  18 19 26  18 25 26  19 20 27  19 26 27  21 22 29  21 28 29  22 23 30  22 29 30  23 24 31  23 30 31  24 25 32  24 31 32  25 26 33  25 32 33  26 27 34  26 33 34  </DataArray>
<DataArray  type="UInt32"  Name="offsets"  format="ascii">3 6 9 12 15 18 21 24 27 30 33 36 39 42 45 48 51 54 57 60 63 66 69 72 75 78 81 84 87 90 93 96 99 102 105 108 111 114 117 120 123 126 129 132 135 138 141 144 </DataArray>
<DataArray  type="UInt8"  Name="types"  format="ascii">5 5 5 5 5 5 5 5 5 5 5 5 5 5 5 5 5 5 5 5 5 5 5 5 5 5 5 5 5 5 5 5 5 5 5 5 5 5 5 5 5 5 5 5 5 5 5 5 </DataArray>
</Cells>
<PointData  Scalars="u"> 
<DataArray  type="Float32"  Name="u"  format="ascii">1.000000e+00  1.027778e+00  1.111111e+00  1.250000e+00  1.444444e+00  1.694444e+00  2.000000e+00  1.125000e+00  1.152778e+00  1.236111e+00  1.375000e+00  1.569444e+00  1.819444e+00  2.125000e+00  1.500000e+00  1.527778e+00  1.611111e+00  1.750000e+00  1.944444e+00  2.194444e+00  2.500000e+00  2.125000e+00  2.152778e+00  2.236111e+00  2.375000e+00  2.569444e+00  2.819444e+00  3.125000e+00  3.000000e+00  3.027778e+00  3.111111e+00  3.250000e+00  3.444444e+00  3.694444e+00  4.000000e+00  </DataArray> 
</PointData> 
</Piece>
</UnstructuredGrid>
</VTKFile>