<?xml version="1.0"?>
<VTKFile type="UnstructuredGrid"  version="0.1"  >
<UnstructuredGrid>
<Piece  NumberOfPoints="31" NumberOfCells="30">
<Points>
<DataArray  type="Float32"  NumberOfComponents="3"  format="ascii">0 0 0  0.0333333 0 0  0.0666667 0 0  0.1 0 0  0.133333 0 0  0.166667 0 0  0.2 0 0  0.233333 0 0  0.266667 0 0  0.3 0 0  0.333333 0 0  0.366667 0 0  0.4 0 0  0.433333 0 0  0.466667 0 0  0.5 0 0  0.533333 0 0  0.566667 0 0  0.6 0 0  0.633333 0 0  0.666667 0 0  0.7 0 0  0.733333 0 0  0.766667 0 0  0.8 0 0  0.833333 0 0  0.866667 0 0  0.9 0 0  0.933333 0 0  0.966667 0 0  1 0 0  </DataArray>
</Points>
<Cells>
<DataArray  type="UInt32"  Name="connectivity"  format="ascii">0 1  1 2  2 3  3 4  4 5  5 6  6 7  7 8  8 9  9 10  10 11  11 12  12 13  13 14  14 15  15 16  16 17  17 18  18 19  19 20  20 21  21 22  22 23  23 24  24 25  25 26  26 27  27 28  28 29  29 30  </DataArray>
<DataArray  type="UInt32"  Name="offsets"  format="ascii">2 4 6 8 10 12 14 16 18 20 22 24 26 28 30 32 34 36 38 40 42 44 46 48 50 52 54 56 58 60 </DataArray>
<DataArray  type="UInt8"  Name="types"  format="ascii">3 3 3 3 3 3 3 3 3 3 3 3 3 3 3 3 3 3 3 3 3 3 3 3 3 3 3 3 3 3 </DataArray>
</Cells>
<PointData  Scalars="u"> 
<DataArray  type="Float32"  Name="u"  format="ascii">9.406022e-04  9.405821e-04  9.405620e-04  9.405419e-04  9.405219e-04  9.405018e-04  9.404817e-04  9.404617e-04  9.404416e-04  9.404215e-04  9.404014e-04  9.403814e-04  9.403613e-04  9.403412e-04  9.403212e-04  9.403011e-04  9.402810e-04  9.402610e-04  9.402409e-04  9.402208e-04  9.402007e-04  9.401807e-04  9.401606e-04  9.401405e-04  9.401204e-04  9.401004e-04  9.400803e-04  9.400602e-04  9.400402e-04  9.400201e-04  9.400000e-04  </DataArray> 
</PointData> 
</Piece>
</UnstructuredGrid>
</VTKFile>