<?xml version="1.0"?>
<VTKFile type="UnstructuredGrid"  version="0.1"  >
<UnstructuredGrid>
<Piece  NumberOfPoints="31" NumberOfCells="30">
<Points>
<DataArray  type="Float32"  NumberOfComponents="3"  format="ascii">0 0 0  0.0333333 0 0  0.0666667 0 0  0.1 0 0  0.133333 0 0  0.166667 0 0  0.2 0 0  0.233333 0 0  0.266667 0 0  0.3 0 0  0.333333 0 0  0.366667 0 0  0.4 0 0  0.433333 0 0  0.466667 0 0  0.5 0 0  0.533333 0 0  0.566667 0 0  0.6 0 0  0.633333 0 0  0.666667 0 0  0.7 0 0  0.733333 0 0  0.766667 0 0  0.8 0 0  0.833333 0 0  0.866667 0 0  0.9 0 0  0.933333 0 0  0.966667 0 0  1 0 0  </DataArray>
</Points>
<Cells>
<DataArray  type="UInt32"  Name="connectivity"  format="ascii">0 1  1 2  2 3  3 4  4 5  5 6  6 7  7 8  8 9  9 10  10 11  11 12  12 13  13 14  14 15  15 16  16 17  17 18  18 19  19 20  20 21  21 22  22 23  23 24  24 25  25 26  26 27  27 28  28 29  29 30  </DataArray>
<DataArray  type="UInt32"  Name="offsets"  format="ascii">2 4 6 8 10 12 14 16 18 20 22 24 26 28 30 32 34 36 38 40 42 44 46 48 50 52 54 56 58 60 </DataArray>
<DataArray  type="UInt8"  Name="types"  format="ascii">3 3 3 3 3 3 3 3 3 3 3 3 3 3 3 3 3 3 3 3 3 3 3 3 3 3 3 3 3 3 </DataArray>
</Cells>
<PointData  Scalars="u"> 
<DataArray  type="Float32"  Name="u"  format="ascii">1.384887e-03  1.384857e-03  1.384827e-03  1.384798e-03  1.384768e-03  1.384739e-03  1.384709e-03  1.384680e-03  1.384650e-03  1.384621e-03  1.384591e-03  1.384562e-03  1.384532e-03  1.384502e-03  1.384473e-03  1.384443e-03  1.384414e-03  1.384384e-03  1.384355e-03  1.384325e-03  1.384296e-03  1.384266e-03  1.384236e-03  1.384207e-03  1.384177e-03  1.384148e-03  1.384118e-03  1.384089e-03  1.384059e-03  1.384030e-03  1.384000e-03  </DataArray> 
</PointData> 
</Piece>
</UnstructuredGrid>
</VTKFile>