<?xml version="1.0"?>
<VTKFile type="UnstructuredGrid"  version="0.1"  >
<UnstructuredGrid>
<Piece  NumberOfPoints="31" NumberOfCells="30">
<Points>
<DataArray  type="Float32"  NumberOfComponents="3"  format="ascii">0 0 0  0.0333333 0 0  0.0666667 0 0  0.1 0 0  0.133333 0 0  0.166667 0 0  0.2 0 0  0.233333 0 0  0.266667 0 0  0.3 0 0  0.333333 0 0  0.366667 0 0  0.4 0 0  0.433333 0 0  0.466667 0 0  0.5 0 0  0.533333 0 0  0.566667 0 0  0.6 0 0  0.633333 0 0  0.666667 0 0  0.7 0 0  0.733333 0 0  0.766667 0 0  0.8 0 0  0.833333 0 0  0.866667 0 0  0.9 0 0  0.933333 0 0  0.966667 0 0  1 0 0  </DataArray>
</Points>
<Cells>
<DataArray  type="UInt32"  Name="connectivity"  format="ascii">0 1  1 2  2 3  3 4  4 5  5 6  6 7  7 8  8 9  9 10  10 11  11 12  12 13  13 14  14 15  15 16  16 17  17 18  18 19  19 20  20 21  21 22  22 23  23 24  24 25  25 26  26 27  27 28  28 29  29 30  </DataArray>
<DataArray  type="UInt32"  Name="offsets"  format="ascii">2 4 6 8 10 12 14 16 18 20 22 24 26 28 30 32 34 36 38 40 42 44 46 48 50 52 54 56 58 60 </DataArray>
<DataArray  type="UInt8"  Name="types"  format="ascii">3 3 3 3 3 3 3 3 3 3 3 3 3 3 3 3 3 3 3 3 3 3 3 3 3 3 3 3 3 3 </DataArray>
</Cells>
<PointData  Scalars="u"> 
<DataArray  type="Float32"  Name="u"  format="ascii">6.143933e-04  6.143802e-04  6.143671e-04  6.143540e-04  6.143409e-04  6.143278e-04  6.143147e-04  6.143016e-04  6.142884e-04  6.142753e-04  6.142622e-04  6.142491e-04  6.142360e-04  6.142229e-04  6.142098e-04  6.141967e-04  6.141836e-04  6.141705e-04  6.141573e-04  6.141442e-04  6.141311e-04  6.141180e-04  6.141049e-04  6.140918e-04  6.140787e-04  6.140656e-04  6.140524e-04  6.140393e-04  6.140262e-04  6.140131e-04  6.140000e-04  </DataArray> 
</PointData> 
</Piece>
</UnstructuredGrid>
</VTKFile>